<?xml version="1.0" encoding="UTF-8"?>

<!-- generated on Fri Mar  6 15:38:54 2020 by Eclipse SUMO Version 1.2.0
<configuration xmlns:xsi="http://www.w3.org/2001/XMLSchema-instance" xsi:noNamespaceSchemaLocation="http://sumo.dlr.de/xsd/sumoConfiguration.xsd">

    <input>
        <net-file value="sumo_sim/simple_intersection.net.xml"/>
        <route-files value="sumo_sim/simple_intersection.rou.xml"/>
    </input>

    <output>
        <tripinfo-output value="tripinfo.xml"/>
    </output>

    <time>
        <begin value="0"/>
        <end value="3000"/>
    </time>

    <traci_server>
        <remote-port value="33387"/>
    </traci_server>

</configuration>
-->

<tripinfos xmlns:xsi="http://www.w3.org/2001/XMLSchema-instance" xsi:noNamespaceSchemaLocation="http://sumo.dlr.de/xsd/tripinfo_file.xsd">
    <tripinfo id="0" depart="0.00" departLane="in_south_0" departPos="4.60" departSpeed="14.72" departDelay="0.00" arrival="18.00" arrivalLane="out_west_0" arrivalPos="100.00" arrivalSpeed="14.66" duration="18.00" routeLength="209.59" waitingTime="0.00" waitingCount="0" stopTime="0.00" timeLoss="2.46" rerouteNo="0" devices="tripinfo_0" vType="car" speedFactor="1.06" vaporized=""/>
    <tripinfo id="1" depart="7.00" departLane="in_east_0" departPos="4.60" departSpeed="13.03" departDelay="0.00" arrival="27.00" arrivalLane="out_north_0" arrivalPos="100.00" arrivalSpeed="12.19" duration="20.00" routeLength="204.43" waitingTime="0.00" waitingCount="0" stopTime="0.00" timeLoss="2.97" rerouteNo="0" devices="tripinfo_1" vType="car" speedFactor="0.94" vaporized=""/>
    <tripinfo id="2" depart="9.00" departLane="in_east_0" departPos="4.60" departSpeed="14.03" departDelay="0.00" arrival="29.00" arrivalLane="out_south_0" arrivalPos="100.00" arrivalSpeed="13.02" duration="20.00" routeLength="209.59" waitingTime="0.00" waitingCount="0" stopTime="0.00" timeLoss="3.82" rerouteNo="0" devices="tripinfo_2" vType="car" speedFactor="1.01" vaporized=""/>
    <tripinfo id="3" depart="11.00" departLane="in_north_0" departPos="4.60" departSpeed="15.04" departDelay="0.00" arrival="42.00" arrivalLane="out_south_0" arrivalPos="100.00" arrivalSpeed="14.99" duration="31.00" routeLength="209.80" waitingTime="10.00" waitingCount="1" stopTime="0.00" timeLoss="16.92" rerouteNo="0" devices="tripinfo_3" vType="car" speedFactor="1.08" vaporized=""/>
    <tripinfo id="5" depart="33.00" departLane="in_south_0" departPos="4.60" departSpeed="11.54" departDelay="0.00" arrival="53.00" arrivalLane="out_north_0" arrivalPos="100.00" arrivalSpeed="11.12" duration="20.00" routeLength="209.80" waitingTime="0.00" waitingCount="0" stopTime="0.00" timeLoss="1.11" rerouteNo="0" devices="tripinfo_5" vType="car" speedFactor="0.83" vaporized=""/>
    <tripinfo id="4" depart="27.00" departLane="in_west_0" departPos="4.60" departSpeed="14.31" departDelay="0.00" arrival="57.00" arrivalLane="out_south_0" arrivalPos="100.00" arrivalSpeed="13.61" duration="30.00" routeLength="204.43" waitingTime="9.00" waitingCount="1" stopTime="0.00" timeLoss="14.60" rerouteNo="0" devices="tripinfo_4" vType="car" speedFactor="1.03" vaporized=""/>
    <tripinfo id="6" depart="37.00" departLane="in_west_0" departPos="4.60" departSpeed="14.53" departDelay="0.00" arrival="59.00" arrivalLane="out_east_0" arrivalPos="100.00" arrivalSpeed="14.27" duration="22.00" routeLength="209.80" waitingTime="0.00" waitingCount="0" stopTime="0.00" timeLoss="7.38" rerouteNo="0" devices="tripinfo_6" vType="car" speedFactor="1.05" vaporized=""/>
    <tripinfo id="7" depart="39.00" departLane="in_west_0" departPos="4.60" departSpeed="12.31" departDelay="0.00" arrival="64.00" arrivalLane="out_south_0" arrivalPos="100.00" arrivalSpeed="12.14" duration="25.00" routeLength="204.43" waitingTime="0.00" waitingCount="0" stopTime="0.00" timeLoss="6.71" rerouteNo="0" devices="tripinfo_7" vType="car" speedFactor="0.89" vaporized=""/>
    <tripinfo id="8" depart="49.00" departLane="in_west_0" departPos="4.60" departSpeed="13.03" departDelay="0.00" arrival="66.00" arrivalLane="out_east_0" arrivalPos="100.00" arrivalSpeed="12.71" duration="17.00" routeLength="209.80" waitingTime="0.00" waitingCount="0" stopTime="0.00" timeLoss="0.60" rerouteNo="0" devices="tripinfo_8" vType="car" speedFactor="0.94" vaporized=""/>
    <tripinfo id="10" depart="51.00" departLane="in_north_0" departPos="4.60" departSpeed="15.15" departDelay="0.00" arrival="69.00" arrivalLane="out_west_0" arrivalPos="100.00" arrivalSpeed="14.29" duration="18.00" routeLength="204.43" waitingTime="0.00" waitingCount="0" stopTime="0.00" timeLoss="3.89" rerouteNo="0" devices="tripinfo_10" vType="car" speedFactor="1.09" vaporized=""/>
    <tripinfo id="11" depart="57.00" departLane="in_north_0" departPos="4.60" departSpeed="14.26" departDelay="0.00" arrival="75.00" arrivalLane="out_east_0" arrivalPos="100.00" arrivalSpeed="13.39" duration="18.00" routeLength="209.59" waitingTime="0.00" waitingCount="0" stopTime="0.00" timeLoss="2.08" rerouteNo="0" devices="tripinfo_11" vType="car" speedFactor="1.03" vaporized=""/>
    <tripinfo id="13" depart="62.00" departLane="in_north_0" departPos="4.60" departSpeed="15.60" departDelay="0.00" arrival="79.00" arrivalLane="out_east_0" arrivalPos="100.00" arrivalSpeed="14.56" duration="17.00" routeLength="209.59" waitingTime="0.00" waitingCount="0" stopTime="0.00" timeLoss="2.51" rerouteNo="0" devices="tripinfo_13" vType="car" speedFactor="1.12" vaporized=""/>
    <tripinfo id="14" depart="64.00" departLane="in_east_0" departPos="4.60" departSpeed="13.77" departDelay="0.00" arrival="85.00" arrivalLane="out_north_0" arrivalPos="100.00" arrivalSpeed="12.93" duration="21.00" routeLength="204.43" waitingTime="0.00" waitingCount="0" stopTime="0.00" timeLoss="4.62" rerouteNo="0" devices="tripinfo_14" vType="car" speedFactor="0.99" vaporized=""/>
    <tripinfo id="9" depart="50.00" departLane="in_west_0" departPos="4.60" departSpeed="10.65" departDelay="0.00" arrival="86.00" arrivalLane="out_east_0" arrivalPos="100.00" arrivalSpeed="11.75" duration="36.00" routeLength="209.80" waitingTime="13.00" waitingCount="1" stopTime="0.00" timeLoss="18.27" rerouteNo="0" devices="tripinfo_9" vType="car" speedFactor="0.86" vaporized=""/>
    <tripinfo id="12" depart="58.00" departLane="in_west_0" departPos="4.60" departSpeed="14.54" departDelay="0.00" arrival="88.00" arrivalLane="out_north_0" arrivalPos="100.00" arrivalSpeed="13.88" duration="30.00" routeLength="209.59" waitingTime="5.00" waitingCount="1" stopTime="0.00" timeLoss="14.47" rerouteNo="0" devices="tripinfo_12" vType="car" speedFactor="1.05" vaporized=""/>
    <tripinfo id="17" depart="67.00" departLane="in_west_0" departPos="4.60" departSpeed="13.08" departDelay="0.00" arrival="90.00" arrivalLane="out_east_0" arrivalPos="100.00" arrivalSpeed="12.04" duration="23.00" routeLength="209.80" waitingTime="0.00" waitingCount="0" stopTime="0.00" timeLoss="6.28" rerouteNo="0" devices="tripinfo_17" vType="car" speedFactor="0.94" vaporized=""/>
    <tripinfo id="18" depart="77.00" departLane="in_east_0" departPos="4.60" departSpeed="13.00" departDelay="0.00" arrival="96.00" arrivalLane="out_north_0" arrivalPos="100.00" arrivalSpeed="12.63" duration="19.00" routeLength="204.43" waitingTime="0.00" waitingCount="0" stopTime="0.00" timeLoss="2.71" rerouteNo="0" devices="tripinfo_18" vType="car" speedFactor="0.94" vaporized=""/>
    <tripinfo id="16" depart="66.00" departLane="in_south_0" departPos="4.60" departSpeed="12.20" departDelay="0.00" arrival="100.00" arrivalLane="out_north_0" arrivalPos="100.00" arrivalSpeed="11.21" duration="34.00" routeLength="209.80" waitingTime="10.00" waitingCount="1" stopTime="0.00" timeLoss="16.48" rerouteNo="0" devices="tripinfo_16" vType="car" speedFactor="0.88" vaporized=""/>
    <tripinfo id="15" depart="66.00" departLane="in_north_0" departPos="4.60" departSpeed="12.87" departDelay="0.00" arrival="103.00" arrivalLane="out_east_0" arrivalPos="100.00" arrivalSpeed="12.82" duration="37.00" routeLength="209.59" waitingTime="11.00" waitingCount="1" stopTime="0.00" timeLoss="19.17" rerouteNo="0" devices="tripinfo_15" vType="car" speedFactor="0.93" vaporized=""/>
    <tripinfo id="20" depart="83.00" departLane="in_north_0" departPos="4.60" departSpeed="14.14" departDelay="0.00" arrival="104.00" arrivalLane="out_west_0" arrivalPos="100.00" arrivalSpeed="13.55" duration="21.00" routeLength="204.43" waitingTime="0.00" waitingCount="0" stopTime="0.00" timeLoss="5.39" rerouteNo="0" devices="tripinfo_20" vType="car" speedFactor="1.02" vaporized=""/>
    <tripinfo id="21" depart="84.00" departLane="in_north_0" departPos="4.60" departSpeed="11.24" departDelay="0.00" arrival="106.00" arrivalLane="out_east_0" arrivalPos="100.00" arrivalSpeed="13.63" duration="22.00" routeLength="209.59" waitingTime="0.00" waitingCount="0" stopTime="0.00" timeLoss="6.03" rerouteNo="0" devices="tripinfo_21" vType="car" speedFactor="1.01" vaporized=""/>
    <tripinfo id="22" depart="86.00" departLane="in_north_0" departPos="4.60" departSpeed="12.51" departDelay="0.00" arrival="109.00" arrivalLane="out_west_0" arrivalPos="100.00" arrivalSpeed="12.53" duration="23.00" routeLength="204.43" waitingTime="0.00" waitingCount="0" stopTime="0.00" timeLoss="6.57" rerouteNo="0" devices="tripinfo_22" vType="car" speedFactor="0.98" vaporized=""/>
    <tripinfo id="27" depart="92.00" departLane="in_south_0" departPos="4.60" departSpeed="13.18" departDelay="0.00" arrival="111.00" arrivalLane="out_west_0" arrivalPos="100.00" arrivalSpeed="12.57" duration="19.00" routeLength="209.59" waitingTime="0.00" waitingCount="0" stopTime="0.00" timeLoss="2.38" rerouteNo="0" devices="tripinfo_27" vType="car" speedFactor="0.95" vaporized=""/>
    <tripinfo id="23" depart="88.00" departLane="in_west_0" departPos="4.60" departSpeed="12.36" departDelay="0.00" arrival="115.00" arrivalLane="out_east_0" arrivalPos="100.00" arrivalSpeed="11.86" duration="27.00" routeLength="209.80" waitingTime="3.00" waitingCount="1" stopTime="0.00" timeLoss="9.27" rerouteNo="0" devices="tripinfo_23" vType="car" speedFactor="0.89" vaporized=""/>
    <tripinfo id="19" depart="79.00" departLane="in_east_0" departPos="4.60" departSpeed="14.18" departDelay="0.00" arrival="117.00" arrivalLane="out_south_0" arrivalPos="100.00" arrivalSpeed="15.64" duration="38.00" routeLength="209.59" waitingTime="15.00" waitingCount="2" stopTime="0.00" timeLoss="24.12" rerouteNo="0" devices="tripinfo_19" vType="car" speedFactor="1.16" vaporized=""/>
    <tripinfo id="25" depart="89.00" departLane="in_east_0" departPos="4.60" departSpeed="12.12" departDelay="0.00" arrival="120.00" arrivalLane="out_south_0" arrivalPos="100.00" arrivalSpeed="11.93" duration="31.00" routeLength="209.59" waitingTime="3.00" waitingCount="1" stopTime="0.00" timeLoss="13.21" rerouteNo="0" devices="tripinfo_25" vType="car" speedFactor="0.87" vaporized=""/>
    <tripinfo id="29" depart="105.00" departLane="in_west_0" departPos="4.60" departSpeed="12.94" departDelay="0.00" arrival="124.00" arrivalLane="out_south_0" arrivalPos="100.00" arrivalSpeed="12.14" duration="19.00" routeLength="204.43" waitingTime="0.00" waitingCount="0" stopTime="0.00" timeLoss="2.09" rerouteNo="0" devices="tripinfo_29" vType="car" speedFactor="0.93" vaporized=""/>
    <tripinfo id="30" depart="105.00" departLane="in_east_0" departPos="4.60" departSpeed="16.37" departDelay="0.00" arrival="125.00" arrivalLane="out_south_0" arrivalPos="100.00" arrivalSpeed="16.32" duration="20.00" routeLength="209.59" waitingTime="0.00" waitingCount="0" stopTime="0.00" timeLoss="6.45" rerouteNo="0" devices="tripinfo_30" vType="car" speedFactor="1.18" vaporized=""/>
    <tripinfo id="33" depart="111.00" departLane="in_south_0" departPos="4.60" departSpeed="16.28" departDelay="0.00" arrival="128.00" arrivalLane="out_east_0" arrivalPos="100.00" arrivalSpeed="15.87" duration="17.00" routeLength="204.43" waitingTime="0.00" waitingCount="0" stopTime="0.00" timeLoss="2.56" rerouteNo="0" devices="tripinfo_33" vType="car" speedFactor="1.17" vaporized=""/>
    <tripinfo id="24" depart="89.00" departLane="in_north_0" departPos="4.60" departSpeed="11.47" departDelay="0.00" arrival="129.00" arrivalLane="out_west_0" arrivalPos="100.00" arrivalSpeed="10.90" duration="40.00" routeLength="204.43" waitingTime="13.00" waitingCount="1" stopTime="0.00" timeLoss="21.00" rerouteNo="0" devices="tripinfo_24" vType="car" speedFactor="0.83" vaporized=""/>
    <tripinfo id="26" depart="91.00" departLane="in_north_0" departPos="4.60" departSpeed="12.54" departDelay="0.00" arrival="130.00" arrivalLane="out_south_0" arrivalPos="100.00" arrivalSpeed="12.42" duration="39.00" routeLength="209.80" waitingTime="12.00" waitingCount="1" stopTime="0.00" timeLoss="22.51" rerouteNo="0" devices="tripinfo_26" vType="car" speedFactor="0.92" vaporized=""/>
    <tripinfo id="34" depart="112.00" departLane="in_south_0" departPos="4.60" departSpeed="13.30" departDelay="0.00" arrival="130.00" arrivalLane="out_north_0" arrivalPos="100.00" arrivalSpeed="13.53" duration="18.00" routeLength="209.80" waitingTime="0.00" waitingCount="0" stopTime="0.00" timeLoss="2.00" rerouteNo="0" devices="tripinfo_34" vType="car" speedFactor="0.99" vaporized=""/>
    <tripinfo id="28" depart="102.00" departLane="in_north_0" departPos="4.60" departSpeed="15.72" departDelay="0.00" arrival="132.00" arrivalLane="out_west_0" arrivalPos="100.00" arrivalSpeed="15.22" duration="30.00" routeLength="204.43" waitingTime="7.00" waitingCount="1" stopTime="0.00" timeLoss="15.66" rerouteNo="0" devices="tripinfo_28" vType="car" speedFactor="1.13" vaporized=""/>
    <tripinfo id="35" depart="117.00" departLane="in_north_0" departPos="4.60" departSpeed="14.16" departDelay="0.00" arrival="136.00" arrivalLane="out_east_0" arrivalPos="100.00" arrivalSpeed="13.41" duration="19.00" routeLength="209.59" waitingTime="0.00" waitingCount="0" stopTime="0.00" timeLoss="2.80" rerouteNo="0" devices="tripinfo_35" vType="car" speedFactor="1.02" vaporized=""/>
    <tripinfo id="31" depart="106.00" departLane="in_east_0" departPos="4.60" departSpeed="13.29" departDelay="0.00" arrival="143.00" arrivalLane="out_north_0" arrivalPos="100.00" arrivalSpeed="14.99" duration="37.00" routeLength="204.43" waitingTime="14.00" waitingCount="1" stopTime="0.00" timeLoss="22.82" rerouteNo="0" devices="tripinfo_31" vType="car" speedFactor="1.15" vaporized=""/>
    <tripinfo id="32" depart="108.00" departLane="in_west_0" departPos="4.60" departSpeed="13.96" departDelay="0.00" arrival="143.00" arrivalLane="out_east_0" arrivalPos="100.00" arrivalSpeed="13.67" duration="35.00" routeLength="209.80" waitingTime="12.00" waitingCount="1" stopTime="0.00" timeLoss="19.16" rerouteNo="0" devices="tripinfo_32" vType="car" speedFactor="1.01" vaporized=""/>
    <tripinfo id="37" depart="136.00" departLane="in_east_0" departPos="4.60" departSpeed="16.39" departDelay="0.00" arrival="152.00" arrivalLane="out_south_0" arrivalPos="100.00" arrivalSpeed="15.79" duration="16.00" routeLength="209.59" waitingTime="0.00" waitingCount="0" stopTime="0.00" timeLoss="2.15" rerouteNo="0" devices="tripinfo_37" vType="car" speedFactor="1.18" vaporized=""/>
    <tripinfo id="36" depart="134.00" departLane="in_north_0" departPos="4.60" departSpeed="13.52" departDelay="0.00" arrival="158.00" arrivalLane="out_south_0" arrivalPos="100.00" arrivalSpeed="12.46" duration="24.00" routeLength="209.80" waitingTime="1.00" waitingCount="1" stopTime="0.00" timeLoss="7.58" rerouteNo="0" devices="tripinfo_36" vType="car" speedFactor="0.97" vaporized=""/>
    <tripinfo id="38" depart="137.00" departLane="in_south_0" departPos="4.60" departSpeed="15.31" departDelay="0.00" arrival="160.00" arrivalLane="out_west_0" arrivalPos="100.00" arrivalSpeed="14.43" duration="23.00" routeLength="209.59" waitingTime="0.00" waitingCount="0" stopTime="0.00" timeLoss="8.30" rerouteNo="0" devices="tripinfo_38" vType="car" speedFactor="1.10" vaporized=""/>
    <tripinfo id="39" depart="148.00" departLane="in_north_0" departPos="4.60" departSpeed="12.51" departDelay="0.00" arrival="166.00" arrivalLane="out_south_0" arrivalPos="100.00" arrivalSpeed="11.29" duration="18.00" routeLength="209.80" waitingTime="0.00" waitingCount="0" stopTime="0.00" timeLoss="0.84" rerouteNo="0" devices="tripinfo_39" vType="car" speedFactor="0.90" vaporized=""/>
    <tripinfo id="40" depart="150.00" departLane="in_south_0" departPos="4.60" departSpeed="14.31" departDelay="0.00" arrival="168.00" arrivalLane="out_west_0" arrivalPos="100.00" arrivalSpeed="13.38" duration="18.00" routeLength="209.59" waitingTime="0.00" waitingCount="0" stopTime="0.00" timeLoss="1.77" rerouteNo="0" devices="tripinfo_40" vType="car" speedFactor="1.03" vaporized=""/>
    <tripinfo id="41" depart="151.00" departLane="in_east_0" departPos="4.60" departSpeed="13.29" departDelay="0.00" arrival="170.00" arrivalLane="out_west_0" arrivalPos="100.00" arrivalSpeed="12.40" duration="19.00" routeLength="209.80" waitingTime="0.00" waitingCount="0" stopTime="0.00" timeLoss="2.54" rerouteNo="0" devices="tripinfo_41" vType="car" speedFactor="0.96" vaporized=""/>
    <tripinfo id="43" depart="154.00" departLane="in_west_0" departPos="4.60" departSpeed="14.41" departDelay="0.00" arrival="170.00" arrivalLane="out_east_0" arrivalPos="100.00" arrivalSpeed="13.94" duration="16.00" routeLength="209.80" waitingTime="0.00" waitingCount="0" stopTime="0.00" timeLoss="0.71" rerouteNo="0" devices="tripinfo_43" vType="car" speedFactor="1.04" vaporized=""/>
    <tripinfo id="42" depart="152.00" departLane="in_east_0" departPos="4.60" departSpeed="10.85" departDelay="0.00" arrival="171.00" arrivalLane="out_west_0" arrivalPos="100.00" arrivalSpeed="14.27" duration="19.00" routeLength="209.80" waitingTime="0.00" waitingCount="0" stopTime="0.00" timeLoss="5.06" rerouteNo="0" devices="tripinfo_42" vType="car" speedFactor="1.09" vaporized=""/>
    <tripinfo id="44" depart="163.00" departLane="in_north_0" departPos="4.60" departSpeed="14.49" departDelay="0.00" arrival="185.00" arrivalLane="out_south_0" arrivalPos="100.00" arrivalSpeed="13.91" duration="22.00" routeLength="209.80" waitingTime="2.00" waitingCount="1" stopTime="0.00" timeLoss="6.65" rerouteNo="0" devices="tripinfo_44" vType="car" speedFactor="1.04" vaporized=""/>
    <tripinfo id="45" depart="172.00" departLane="in_south_0" departPos="4.60" departSpeed="15.11" departDelay="0.00" arrival="187.00" arrivalLane="out_north_0" arrivalPos="100.00" arrivalSpeed="14.75" duration="15.00" routeLength="209.80" waitingTime="0.00" waitingCount="0" stopTime="0.00" timeLoss="0.69" rerouteNo="0" devices="tripinfo_45" vType="car" speedFactor="1.09" vaporized=""/>
    <tripinfo id="46" depart="179.00" departLane="in_east_0" departPos="4.60" departSpeed="13.85" departDelay="0.00" arrival="201.00" arrivalLane="out_south_0" arrivalPos="100.00" arrivalSpeed="13.21" duration="22.00" routeLength="209.59" waitingTime="0.00" waitingCount="0" stopTime="0.00" timeLoss="5.72" rerouteNo="0" devices="tripinfo_46" vType="car" speedFactor="1.00" vaporized=""/>
    <tripinfo id="47" depart="183.00" departLane="in_east_0" departPos="4.60" departSpeed="12.51" departDelay="0.00" arrival="204.00" arrivalLane="out_south_0" arrivalPos="100.00" arrivalSpeed="11.35" duration="21.00" routeLength="209.59" waitingTime="0.00" waitingCount="0" stopTime="0.00" timeLoss="3.11" rerouteNo="0" devices="tripinfo_47" vType="car" speedFactor="0.90" vaporized=""/>
    <tripinfo id="48" depart="184.00" departLane="in_south_0" departPos="4.60" departSpeed="12.18" departDelay="0.00" arrival="217.00" arrivalLane="out_west_0" arrivalPos="100.00" arrivalSpeed="12.10" duration="33.00" routeLength="209.59" waitingTime="10.00" waitingCount="1" stopTime="0.00" timeLoss="14.88" rerouteNo="0" devices="tripinfo_48" vType="car" speedFactor="0.88" vaporized=""/>
    <tripinfo id="49" depart="186.00" departLane="in_south_0" departPos="4.60" departSpeed="11.81" departDelay="0.00" arrival="220.00" arrivalLane="out_west_0" arrivalPos="100.00" arrivalSpeed="11.56" duration="34.00" routeLength="209.59" waitingTime="8.00" waitingCount="1" stopTime="0.00" timeLoss="14.96" rerouteNo="0" devices="tripinfo_49" vType="car" speedFactor="0.85" vaporized=""/>
    <tripinfo id="53" depart="207.00" departLane="in_north_0" departPos="4.60" departSpeed="15.22" departDelay="0.00" arrival="224.00" arrivalLane="out_east_0" arrivalPos="100.00" arrivalSpeed="15.13" duration="17.00" routeLength="209.59" waitingTime="0.00" waitingCount="0" stopTime="0.00" timeLoss="2.59" rerouteNo="0" devices="tripinfo_53" vType="car" speedFactor="1.10" vaporized=""/>
    <tripinfo id="54" depart="208.00" departLane="in_south_0" departPos="4.60" departSpeed="13.93" departDelay="0.00" arrival="226.00" arrivalLane="out_west_0" arrivalPos="100.00" arrivalSpeed="13.31" duration="18.00" routeLength="209.59" waitingTime="0.00" waitingCount="0" stopTime="0.00" timeLoss="1.88" rerouteNo="0" devices="tripinfo_54" vType="car" speedFactor="1.00" vaporized=""/>
    <tripinfo id="51" depart="201.00" departLane="in_east_0" departPos="4.60" departSpeed="16.24" departDelay="0.00" arrival="230.00" arrivalLane="out_north_0" arrivalPos="100.00" arrivalSpeed="15.47" duration="29.00" routeLength="204.43" waitingTime="9.00" waitingCount="1" stopTime="0.00" timeLoss="15.13" rerouteNo="0" devices="tripinfo_51" vType="car" speedFactor="1.17" vaporized=""/>
    <tripinfo id="55" depart="212.00" departLane="in_east_0" departPos="4.60" departSpeed="13.83" departDelay="0.00" arrival="233.00" arrivalLane="out_north_0" arrivalPos="100.00" arrivalSpeed="13.06" duration="21.00" routeLength="204.43" waitingTime="0.00" waitingCount="0" stopTime="0.00" timeLoss="4.97" rerouteNo="0" devices="tripinfo_55" vType="car" speedFactor="1.00" vaporized=""/>
    <tripinfo id="57" depart="220.00" departLane="in_east_0" departPos="4.60" departSpeed="15.87" departDelay="0.00" arrival="234.00" arrivalLane="out_west_0" arrivalPos="100.00" arrivalSpeed="14.86" duration="14.00" routeLength="209.80" waitingTime="0.00" waitingCount="0" stopTime="0.00" timeLoss="0.52" rerouteNo="0" devices="tripinfo_57" vType="car" speedFactor="1.14" vaporized=""/>
    <tripinfo id="50" depart="200.00" departLane="in_west_0" departPos="4.60" departSpeed="11.87" departDelay="0.00" arrival="242.00" arrivalLane="out_north_0" arrivalPos="100.00" arrivalSpeed="10.76" duration="42.00" routeLength="209.59" waitingTime="14.00" waitingCount="2" stopTime="0.00" timeLoss="22.62" rerouteNo="0" devices="tripinfo_50" vType="car" speedFactor="0.85" vaporized=""/>
    <tripinfo id="60" depart="223.00" departLane="in_south_0" departPos="4.60" departSpeed="15.04" departDelay="0.00" arrival="243.00" arrivalLane="out_north_0" arrivalPos="100.00" arrivalSpeed="14.86" duration="20.00" routeLength="209.80" waitingTime="0.00" waitingCount="0" stopTime="0.00" timeLoss="6.02" rerouteNo="0" devices="tripinfo_60" vType="car" speedFactor="1.08" vaporized=""/>
    <tripinfo id="58" depart="222.00" departLane="in_north_0" departPos="4.60" departSpeed="14.22" departDelay="0.00" arrival="244.00" arrivalLane="out_south_0" arrivalPos="100.00" arrivalSpeed="13.09" duration="22.00" routeLength="209.80" waitingTime="0.00" waitingCount="0" stopTime="0.00" timeLoss="6.82" rerouteNo="0" devices="tripinfo_58" vType="car" speedFactor="1.02" vaporized=""/>
    <tripinfo id="61" depart="224.00" departLane="in_south_0" departPos="4.60" departSpeed="11.70" departDelay="0.00" arrival="245.00" arrivalLane="out_east_0" arrivalPos="100.00" arrivalSpeed="15.05" duration="21.00" routeLength="204.43" waitingTime="0.00" waitingCount="0" stopTime="0.00" timeLoss="6.99" rerouteNo="0" devices="tripinfo_61" vType="car" speedFactor="1.12" vaporized=""/>
    <tripinfo id="59" depart="223.00" departLane="in_east_0" departPos="4.60" departSpeed="13.47" departDelay="0.00" arrival="259.00" arrivalLane="out_west_0" arrivalPos="100.00" arrivalSpeed="13.38" duration="36.00" routeLength="209.80" waitingTime="12.00" waitingCount="1" stopTime="0.00" timeLoss="19.62" rerouteNo="0" devices="tripinfo_59" vType="car" speedFactor="0.97" vaporized=""/>
    <tripinfo id="62" depart="227.00" departLane="in_east_0" departPos="4.60" departSpeed="14.11" departDelay="0.00" arrival="260.00" arrivalLane="out_north_0" arrivalPos="100.00" arrivalSpeed="14.09" duration="33.00" routeLength="204.43" waitingTime="10.00" waitingCount="1" stopTime="0.00" timeLoss="17.89" rerouteNo="0" devices="tripinfo_62" vType="car" speedFactor="1.02" vaporized=""/>
    <tripinfo id="52" depart="205.00" departLane="in_west_0" departPos="4.60" departSpeed="14.12" departDelay="0.00" arrival="264.00" arrivalLane="out_north_0" arrivalPos="100.00" arrivalSpeed="12.88" duration="59.00" routeLength="209.59" waitingTime="27.00" waitingCount="4" stopTime="0.00" timeLoss="43.08" rerouteNo="0" devices="tripinfo_52" vType="car" speedFactor="1.02" vaporized=""/>
    <tripinfo id="64" depart="231.00" departLane="in_east_0" departPos="4.60" departSpeed="13.02" departDelay="0.00" arrival="264.00" arrivalLane="out_south_0" arrivalPos="100.00" arrivalSpeed="12.50" duration="33.00" routeLength="209.59" waitingTime="9.00" waitingCount="1" stopTime="0.00" timeLoss="15.31" rerouteNo="0" devices="tripinfo_64" vType="car" speedFactor="0.94" vaporized=""/>
    <tripinfo id="56" depart="214.00" departLane="in_west_0" departPos="4.60" departSpeed="12.49" departDelay="0.00" arrival="267.00" arrivalLane="out_north_0" arrivalPos="100.00" arrivalSpeed="11.22" duration="53.00" routeLength="209.59" waitingTime="21.00" waitingCount="3" stopTime="0.00" timeLoss="35.04" rerouteNo="0" devices="tripinfo_56" vType="car" speedFactor="0.90" vaporized=""/>
    <tripinfo id="63" depart="230.00" departLane="in_west_0" departPos="4.60" departSpeed="13.71" departDelay="0.00" arrival="268.00" arrivalLane="out_east_0" arrivalPos="100.00" arrivalSpeed="13.42" duration="38.00" routeLength="209.80" waitingTime="11.00" waitingCount="2" stopTime="0.00" timeLoss="21.75" rerouteNo="0" devices="tripinfo_63" vType="car" speedFactor="0.99" vaporized=""/>
    <tripinfo id="65" depart="232.00" departLane="in_west_0" departPos="4.60" departSpeed="12.26" departDelay="0.00" arrival="272.00" arrivalLane="out_south_0" arrivalPos="100.00" arrivalSpeed="11.64" duration="40.00" routeLength="204.43" waitingTime="10.00" waitingCount="2" stopTime="0.00" timeLoss="21.52" rerouteNo="0" devices="tripinfo_65" vType="car" speedFactor="0.88" vaporized=""/>
    <tripinfo id="66" depart="240.00" departLane="in_south_0" departPos="4.60" departSpeed="12.60" departDelay="0.00" arrival="276.00" arrivalLane="out_west_0" arrivalPos="100.00" arrivalSpeed="12.22" duration="36.00" routeLength="209.59" waitingTime="13.00" waitingCount="1" stopTime="0.00" timeLoss="18.05" rerouteNo="0" devices="tripinfo_66" vType="car" speedFactor="0.91" vaporized=""/>
    <tripinfo id="67" depart="249.00" departLane="in_south_0" departPos="4.60" departSpeed="12.70" departDelay="0.00" arrival="278.00" arrivalLane="out_west_0" arrivalPos="100.00" arrivalSpeed="12.30" duration="29.00" routeLength="209.59" waitingTime="5.00" waitingCount="1" stopTime="0.00" timeLoss="11.48" rerouteNo="0" devices="tripinfo_67" vType="car" speedFactor="0.91" vaporized=""/>
    <tripinfo id="70" depart="268.00" departLane="in_north_0" departPos="4.60" departSpeed="14.21" departDelay="0.00" arrival="284.00" arrivalLane="out_south_0" arrivalPos="100.00" arrivalSpeed="13.54" duration="16.00" routeLength="209.80" waitingTime="0.00" waitingCount="0" stopTime="0.00" timeLoss="0.71" rerouteNo="0" devices="tripinfo_70" vType="car" speedFactor="1.02" vaporized=""/>
    <tripinfo id="69" depart="261.00" departLane="in_west_0" departPos="4.60" departSpeed="14.20" departDelay="0.00" arrival="294.00" arrivalLane="out_north_0" arrivalPos="100.00" arrivalSpeed="13.03" duration="33.00" routeLength="209.59" waitingTime="10.00" waitingCount="1" stopTime="0.00" timeLoss="17.15" rerouteNo="0" devices="tripinfo_69" vType="car" speedFactor="1.02" vaporized=""/>
    <tripinfo id="71" depart="270.00" departLane="in_west_0" departPos="4.60" departSpeed="13.51" departDelay="0.00" arrival="297.00" arrivalLane="out_south_0" arrivalPos="100.00" arrivalSpeed="12.37" duration="27.00" routeLength="204.43" waitingTime="2.00" waitingCount="1" stopTime="0.00" timeLoss="10.24" rerouteNo="0" devices="tripinfo_71" vType="car" speedFactor="0.97" vaporized=""/>
    <tripinfo id="68" depart="257.00" departLane="in_east_0" departPos="4.60" departSpeed="14.44" departDelay="0.00" arrival="300.00" arrivalLane="out_south_0" arrivalPos="100.00" arrivalSpeed="13.91" duration="43.00" routeLength="209.59" waitingTime="16.00" waitingCount="2" stopTime="0.00" timeLoss="27.38" rerouteNo="0" devices="tripinfo_68" vType="car" speedFactor="1.04" vaporized=""/>
    <tripinfo id="75" depart="283.00" departLane="in_east_0" departPos="4.60" departSpeed="13.68" departDelay="0.00" arrival="302.00" arrivalLane="out_north_0" arrivalPos="100.00" arrivalSpeed="13.29" duration="19.00" routeLength="204.43" waitingTime="0.00" waitingCount="0" stopTime="0.00" timeLoss="2.91" rerouteNo="0" devices="tripinfo_75" vType="car" speedFactor="0.98" vaporized=""/>
    <tripinfo id="76" depart="288.00" departLane="in_west_0" departPos="4.60" departSpeed="14.34" departDelay="0.00" arrival="305.00" arrivalLane="out_north_0" arrivalPos="100.00" arrivalSpeed="13.94" duration="17.00" routeLength="209.59" waitingTime="0.00" waitingCount="0" stopTime="0.00" timeLoss="1.38" rerouteNo="0" devices="tripinfo_76" vType="car" speedFactor="1.03" vaporized=""/>
    <tripinfo id="73" depart="275.00" departLane="in_south_0" departPos="4.60" departSpeed="14.66" departDelay="0.00" arrival="308.00" arrivalLane="out_east_0" arrivalPos="100.00" arrivalSpeed="13.74" duration="33.00" routeLength="204.43" waitingTime="13.00" waitingCount="1" stopTime="0.00" timeLoss="18.00" rerouteNo="0" devices="tripinfo_73" vType="car" speedFactor="1.06" vaporized=""/>